1000
Lattice="0.0 19.0 19.0 19.0 0.0 19.0 19.0 19.0 0.0" Properties=species:S:1:pos:R:3:tags:I:1 energy=-3530.6003229180833 pbc="T T T"
Cu       0.00000000       0.00000000       0.00000000        0 
Au       0.00000000       1.90000000       1.90000000        0 
Cu       0.00000000       3.80000000       3.80000000        0 
Au       0.00000000       5.70000000       5.70000000        0 
Cu       0.00000000       7.60000000       7.60000000        0 
Au       0.00000000       9.50000000       9.50000000        0 
Cu       0.00000000      11.40000000      11.40000000        0 
Au       0.00000000      13.30000000      13.30000000        0 
Cu       0.00000000      15.20000000      15.20000000        0 
Au       0.00000000      17.10000000      17.10000000        0 
Au       1.90000000       0.00000000       1.90000000        0 
Cu       1.90000000       1.90000000       0.00000000        0 
Cu       1.90000000       1.90000000       3.80000000        0 
Au       1.90000000       3.80000000       1.90000000        0 
Au       1.90000000       3.80000000       5.70000000        0 
Cu       1.90000000       5.70000000       3.80000000        0 
Cu       1.90000000       5.70000000       7.60000000        0 
Au       1.90000000       7.60000000       5.70000000        0 
Au       1.90000000       7.60000000       9.50000000        0 
Cu       1.90000000       9.50000000       7.60000000        0 
Cu       1.90000000       9.50000000      11.40000000        0 
Au       1.90000000      11.40000000       9.50000000        0 
Au       1.90000000      11.40000000      13.30000000        0 
Cu       1.90000000      13.30000000      11.40000000        0 
Cu       1.90000000      13.30000000      15.20000000        0 
Au       1.90000000      15.20000000      13.30000000        0 
Au       1.90000000      15.20000000      17.10000000        0 
Cu       1.90000000      17.10000000      15.20000000        0 
Cu       1.90000000      17.10000000      19.00000000        0 
Au       1.90000000      19.00000000      17.10000000        0 
Cu       3.80000000       0.00000000       3.80000000        0 
Au       3.80000000       1.90000000       1.90000000        0 
Au       3.80000000       1.90000000       5.70000000        0 
Cu       3.80000000       3.80000000       0.00000000        0 
Cu       3.80000000       3.80000000       3.80000000        0 
Cu       3.80000000       3.80000000       7.60000000        0 
Au       3.80000000       5.70000000       1.90000000        0 
Au       3.80000000       5.70000000       5.70000000        0 
Au       3.80000000       5.70000000       9.50000000        0 
Cu       3.80000000       7.60000000       3.80000000        0 
Cu       3.80000000       7.60000000       7.60000000        0 
Cu       3.80000000       7.60000000      11.40000000        0 
Au       3.80000000       9.50000000       5.70000000        0 
Au       3.80000000       9.50000000       9.50000000        0 
Au       3.80000000       9.50000000      13.30000000        0 
Cu       3.80000000      11.40000000       7.60000000        0 
Cu       3.80000000      11.40000000      11.40000000        0 
Cu       3.80000000      11.40000000      15.20000000        0 
Au       3.80000000      13.30000000       9.50000000        0 
Au       3.80000000      13.30000000      13.30000000        0 
Au       3.80000000      13.30000000      17.10000000        0 
Cu       3.80000000      15.20000000      11.40000000        0 
Cu       3.80000000      15.20000000      15.20000000        0 
Cu       3.80000000      15.20000000      19.00000000        0 
Au       3.80000000      17.10000000      13.30000000        0 
Au       3.80000000      17.10000000      17.10000000        0 
Au       3.80000000      17.10000000      20.90000000        0 
Cu       3.80000000      19.00000000      15.20000000        0 
Cu       3.80000000      19.00000000      19.00000000        0 
Au       3.80000000      20.90000000      17.10000000        0 
Au       5.70000000       0.00000000       5.70000000        0 
Cu       5.70000000       1.90000000       3.80000000        0 
Cu       5.70000000       1.90000000       7.60000000        0 
Au       5.70000000       3.80000000       1.90000000        0 
Au       5.70000000       3.80000000       5.70000000        0 
Au       5.70000000       3.80000000       9.50000000        0 
Cu       5.70000000       5.70000000       0.00000000        0 
Cu       5.70000000       5.70000000       3.80000000        0 
Cu       5.70000000       5.70000000       7.60000000        0 
Cu       5.70000000       5.70000000      11.40000000        0 
Au       5.70000000       7.60000000       1.90000000        0 
Au       5.70000000       7.60000000       5.70000000        0 
Au       5.70000000       7.60000000       9.50000000        0 
Au       5.70000000       7.60000000      13.30000000        0 
Cu       5.70000000       9.50000000       3.80000000        0 
Cu       5.70000000       9.50000000       7.60000000        0 
Cu       5.70000000       9.50000000      11.40000000        0 
Cu       5.70000000       9.50000000      15.20000000        0 
Au       5.70000000      11.40000000       5.70000000        0 
Au       5.70000000      11.40000000       9.50000000        0 
Au       5.70000000      11.40000000      13.30000000        0 
Au       5.70000000      11.40000000      17.10000000        0 
Cu       5.70000000      13.30000000       7.60000000        0 
Cu       5.70000000      13.30000000      11.40000000        0 
Cu       5.70000000      13.30000000      15.20000000        0 
Cu       5.70000000      13.30000000      19.00000000        0 
Au       5.70000000      15.20000000       9.50000000        0 
Au       5.70000000      15.20000000      13.30000000        0 
Au       5.70000000      15.20000000      17.10000000        0 
Au       5.70000000      15.20000000      20.90000000        0 
Cu       5.70000000      17.10000000      11.40000000        0 
Cu       5.70000000      17.10000000      15.20000000        0 
Cu       5.70000000      17.10000000      19.00000000        0 
Cu       5.70000000      17.10000000      22.80000000        0 
Au       5.70000000      19.00000000      13.30000000        0 
Au       5.70000000      19.00000000      17.10000000        0 
Au       5.70000000      19.00000000      20.90000000        0 
Cu       5.70000000      20.90000000      15.20000000        0 
Cu       5.70000000      20.90000000      19.00000000        0 
Au       5.70000000      22.80000000      17.10000000        0 
Cu       7.60000000       0.00000000       7.60000000        0 
Au       7.60000000       1.90000000       5.70000000        0 
Au       7.60000000       1.90000000       9.50000000        0 
Cu       7.60000000       3.80000000       3.80000000        0 
Cu       7.60000000       3.80000000       7.60000000        0 
Cu       7.60000000       3.80000000      11.40000000        0 
Au       7.60000000       5.70000000       1.90000000        0 
Au       7.60000000       5.70000000       5.70000000        0 
Au       7.60000000       5.70000000       9.50000000        0 
Au       7.60000000       5.70000000      13.30000000        0 
Cu       7.60000000       7.60000000       0.00000000        0 
Cu       7.60000000       7.60000000       3.80000000        0 
Cu       7.60000000       7.60000000       7.60000000        0 
Cu       7.60000000       7.60000000      11.40000000        0 
Cu       7.60000000       7.60000000      15.20000000        0 
Au       7.60000000       9.50000000       1.90000000        0 
Au       7.60000000       9.50000000       5.70000000        0 
Au       7.60000000       9.50000000       9.50000000        0 
Au       7.60000000       9.50000000      13.30000000        0 
Au       7.60000000       9.50000000      17.10000000        0 
Cu       7.60000000      11.40000000       3.80000000        0 
Cu       7.60000000      11.40000000       7.60000000        0 
Cu       7.60000000      11.40000000      11.40000000        0 
Cu       7.60000000      11.40000000      15.20000000        0 
Cu       7.60000000      11.40000000      19.00000000        0 
Au       7.60000000      13.30000000       5.70000000        0 
Au       7.60000000      13.30000000       9.50000000        0 
Au       7.60000000      13.30000000      13.30000000        0 
Au       7.60000000      13.30000000      17.10000000        0 
Au       7.60000000      13.30000000      20.90000000        0 
Cu       7.60000000      15.20000000       7.60000000        0 
Cu       7.60000000      15.20000000      11.40000000        0 
Cu       7.60000000      15.20000000      15.20000000        0 
Cu       7.60000000      15.20000000      19.00000000        0 
Cu       7.60000000      15.20000000      22.80000000        0 
Au       7.60000000      17.10000000       9.50000000        0 
Au       7.60000000      17.10000000      13.30000000        0 
Au       7.60000000      17.10000000      17.10000000        0 
Au       7.60000000      17.10000000      20.90000000        0 
Au       7.60000000      17.10000000      24.70000000        0 
Cu       7.60000000      19.00000000      11.40000000        0 
Cu       7.60000000      19.00000000      15.20000000        0 
Cu       7.60000000      19.00000000      19.00000000        0 
Cu       7.60000000      19.00000000      22.80000000        0 
Au       7.60000000      20.90000000      13.30000000        0 
Au       7.60000000      20.90000000      17.10000000        0 
Au       7.60000000      20.90000000      20.90000000        0 
Cu       7.60000000      22.80000000      15.20000000        0 
Cu       7.60000000      22.80000000      19.00000000        0 
Au       7.60000000      24.70000000      17.10000000        0 
Au       9.50000000       0.00000000       9.50000000        0 
Cu       9.50000000       1.90000000       7.60000000        0 
Cu       9.50000000       1.90000000      11.40000000        0 
Au       9.50000000       3.80000000       5.70000000        0 
Au       9.50000000       3.80000000       9.50000000        0 
Au       9.50000000       3.80000000      13.30000000        0 
Cu       9.50000000       5.70000000       3.80000000        0 
Cu       9.50000000       5.70000000       7.60000000        0 
Cu       9.50000000       5.70000000      11.40000000        0 
Cu       9.50000000       5.70000000      15.20000000        0 
Au       9.50000000       7.60000000       1.90000000        0 
Au       9.50000000       7.60000000       5.70000000        0 
Au       9.50000000       7.60000000       9.50000000        0 
Au       9.50000000       7.60000000      13.30000000        0 
Au       9.50000000       7.60000000      17.10000000        0 
Cu       9.50000000       9.50000000       0.00000000        0 
Cu       9.50000000       9.50000000       3.80000000        0 
Cu       9.50000000       9.50000000       7.60000000        0 
Cu       9.50000000       9.50000000      11.40000000        0 
Cu       9.50000000       9.50000000      15.20000000        0 
Cu       9.50000000       9.50000000      19.00000000        0 
Au       9.50000000      11.40000000       1.90000000        0 
Au       9.50000000      11.40000000       5.70000000        0 
Au       9.50000000      11.40000000       9.50000000        0 
Au       9.50000000      11.40000000      13.30000000        0 
Au       9.50000000      11.40000000      17.10000000        0 
Au       9.50000000      11.40000000      20.90000000        0 
Cu       9.50000000      13.30000000       3.80000000        0 
Cu       9.50000000      13.30000000       7.60000000        0 
Cu       9.50000000      13.30000000      11.40000000        0 
Cu       9.50000000      13.30000000      15.20000000        0 
Cu       9.50000000      13.30000000      19.00000000        0 
Cu       9.50000000      13.30000000      22.80000000        0 
Au       9.50000000      15.20000000       5.70000000        0 
Au       9.50000000      15.20000000       9.50000000        0 
Au       9.50000000      15.20000000      13.30000000        0 
Au       9.50000000      15.20000000      17.10000000        0 
Au       9.50000000      15.20000000      20.90000000        0 
Au       9.50000000      15.20000000      24.70000000        0 
Cu       9.50000000      17.10000000       7.60000000        0 
Cu       9.50000000      17.10000000      11.40000000        0 
Cu       9.50000000      17.10000000      15.20000000        0 
Cu       9.50000000      17.10000000      19.00000000        0 
Cu       9.50000000      17.10000000      22.80000000        0 
Cu       9.50000000      17.10000000      26.60000000        0 
Au       9.50000000      19.00000000       9.50000000        0 
Au       9.50000000      19.00000000      13.30000000        0 
Au       9.50000000      19.00000000      17.10000000        0 
Au       9.50000000      19.00000000      20.90000000        0 
Au       9.50000000      19.00000000      24.70000000        0 
Cu       9.50000000      20.90000000      11.40000000        0 
Cu       9.50000000      20.90000000      15.20000000        0 
Cu       9.50000000      20.90000000      19.00000000        0 
Cu       9.50000000      20.90000000      22.80000000        0 
Au       9.50000000      22.80000000      13.30000000        0 
Au       9.50000000      22.80000000      17.10000000        0 
Au       9.50000000      22.80000000      20.90000000        0 
Cu       9.50000000      24.70000000      15.20000000        0 
Cu       9.50000000      24.70000000      19.00000000        0 
Au       9.50000000      26.60000000      17.10000000        0 
Cu      11.40000000       0.00000000      11.40000000        0 
Au      11.40000000       1.90000000       9.50000000        0 
Au      11.40000000       1.90000000      13.30000000        0 
Cu      11.40000000       3.80000000       7.60000000        0 
Cu      11.40000000       3.80000000      11.40000000        0 
Cu      11.40000000       3.80000000      15.20000000        0 
Au      11.40000000       5.70000000       5.70000000        0 
Au      11.40000000       5.70000000       9.50000000        0 
Au      11.40000000       5.70000000      13.30000000        0 
Au      11.40000000       5.70000000      17.10000000        0 
Cu      11.40000000       7.60000000       3.80000000        0 
Cu      11.40000000       7.60000000       7.60000000        0 
Cu      11.40000000       7.60000000      11.40000000        0 
Cu      11.40000000       7.60000000      15.20000000        0 
Cu      11.40000000       7.60000000      19.00000000        0 
Au      11.40000000       9.50000000       1.90000000        0 
Au      11.40000000       9.50000000       5.70000000        0 
Au      11.40000000       9.50000000       9.50000000        0 
Au      11.40000000       9.50000000      13.30000000        0 
Au      11.40000000       9.50000000      17.10000000        0 
Au      11.40000000       9.50000000      20.90000000        0 
Cu      11.40000000      11.40000000       0.00000000        0 
Cu      11.40000000      11.40000000       3.80000000        0 
Cu      11.40000000      11.40000000       7.60000000        0 
Cu      11.40000000      11.40000000      11.40000000        0 
Cu      11.40000000      11.40000000      15.20000000        0 
Cu      11.40000000      11.40000000      19.00000000        0 
Cu      11.40000000      11.40000000      22.80000000        0 
Au      11.40000000      13.30000000       1.90000000        0 
Au      11.40000000      13.30000000       5.70000000        0 
Au      11.40000000      13.30000000       9.50000000        0 
Au      11.40000000      13.30000000      13.30000000        0 
Au      11.40000000      13.30000000      17.10000000        0 
Au      11.40000000      13.30000000      20.90000000        0 
Au      11.40000000      13.30000000      24.70000000        0 
Cu      11.40000000      15.20000000       3.80000000        0 
Cu      11.40000000      15.20000000       7.60000000        0 
Cu      11.40000000      15.20000000      11.40000000        0 
Cu      11.40000000      15.20000000      15.20000000        0 
Cu      11.40000000      15.20000000      19.00000000        0 
Cu      11.40000000      15.20000000      22.80000000        0 
Cu      11.40000000      15.20000000      26.60000000        0 
Au      11.40000000      17.10000000       5.70000000        0 
Au      11.40000000      17.10000000       9.50000000        0 
Au      11.40000000      17.10000000      13.30000000        0 
Au      11.40000000      17.10000000      17.10000000        0 
Au      11.40000000      17.10000000      20.90000000        0 
Au      11.40000000      17.10000000      24.70000000        0 
Au      11.40000000      17.10000000      28.50000000        0 
Cu      11.40000000      19.00000000       7.60000000        0 
Cu      11.40000000      19.00000000      11.40000000        0 
Cu      11.40000000      19.00000000      15.20000000        0 
Cu      11.40000000      19.00000000      19.00000000        0 
Cu      11.40000000      19.00000000      22.80000000        0 
Cu      11.40000000      19.00000000      26.60000000        0 
Au      11.40000000      20.90000000       9.50000000        0 
Au      11.40000000      20.90000000      13.30000000        0 
Au      11.40000000      20.90000000      17.10000000        0 
Au      11.40000000      20.90000000      20.90000000        0 
Au      11.40000000      20.90000000      24.70000000        0 
Cu      11.40000000      22.80000000      11.40000000        0 
Cu      11.40000000      22.80000000      15.20000000        0 
Cu      11.40000000      22.80000000      19.00000000        0 
Cu      11.40000000      22.80000000      22.80000000        0 
Au      11.40000000      24.70000000      13.30000000        0 
Au      11.40000000      24.70000000      17.10000000        0 
Au      11.40000000      24.70000000      20.90000000        0 
Cu      11.40000000      26.60000000      15.20000000        0 
Cu      11.40000000      26.60000000      19.00000000        0 
Au      11.40000000      28.50000000      17.10000000        0 
Au      13.30000000       0.00000000      13.30000000        0 
Cu      13.30000000       1.90000000      11.40000000        0 
Cu      13.30000000       1.90000000      15.20000000        0 
Au      13.30000000       3.80000000       9.50000000        0 
Au      13.30000000       3.80000000      13.30000000        0 
Au      13.30000000       3.80000000      17.10000000        0 
Cu      13.30000000       5.70000000       7.60000000        0 
Cu      13.30000000       5.70000000      11.40000000        0 
Cu      13.30000000       5.70000000      15.20000000        0 
Cu      13.30000000       5.70000000      19.00000000        0 
Au      13.30000000       7.60000000       5.70000000        0 
Au      13.30000000       7.60000000       9.50000000        0 
Au      13.30000000       7.60000000      13.30000000        0 
Au      13.30000000       7.60000000      17.10000000        0 
Au      13.30000000       7.60000000      20.90000000        0 
Cu      13.30000000       9.50000000       3.80000000        0 
Cu      13.30000000       9.50000000       7.60000000        0 
Cu      13.30000000       9.50000000      11.40000000        0 
Cu      13.30000000       9.50000000      15.20000000        0 
Cu      13.30000000       9.50000000      19.00000000        0 
Cu      13.30000000       9.50000000      22.80000000        0 
Au      13.30000000      11.40000000       1.90000000        0 
Au      13.30000000      11.40000000       5.70000000        0 
Au      13.30000000      11.40000000       9.50000000        0 
Au      13.30000000      11.40000000      13.30000000        0 
Au      13.30000000      11.40000000      17.10000000        0 
Au      13.30000000      11.40000000      20.90000000        0 
Au      13.30000000      11.40000000      24.70000000        0 
Cu      13.30000000      13.30000000       0.00000000        0 
Cu      13.30000000      13.30000000       3.80000000        0 
Cu      13.30000000      13.30000000       7.60000000        0 
Cu      13.30000000      13.30000000      11.40000000        0 
Cu      13.30000000      13.30000000      15.20000000        0 
Cu      13.30000000      13.30000000      19.00000000        0 
Cu      13.30000000      13.30000000      22.80000000        0 
Cu      13.30000000      13.30000000      26.60000000        0 
Au      13.30000000      15.20000000       1.90000000        0 
Au      13.30000000      15.20000000       5.70000000        0 
Au      13.30000000      15.20000000       9.50000000        0 
Au      13.30000000      15.20000000      13.30000000        0 
Au      13.30000000      15.20000000      17.10000000        0 
Au      13.30000000      15.20000000      20.90000000        0 
Au      13.30000000      15.20000000      24.70000000        0 
Au      13.30000000      15.20000000      28.50000000        0 
Cu      13.30000000      17.10000000       3.80000000        0 
Cu      13.30000000      17.10000000       7.60000000        0 
Cu      13.30000000      17.10000000      11.40000000        0 
Cu      13.30000000      17.10000000      15.20000000        0 
Cu      13.30000000      17.10000000      19.00000000        0 
Cu      13.30000000      17.10000000      22.80000000        0 
Cu      13.30000000      17.10000000      26.60000000        0 
Cu      13.30000000      17.10000000      30.40000000        0 
Au      13.30000000      19.00000000       5.70000000        0 
Au      13.30000000      19.00000000       9.50000000        0 
Au      13.30000000      19.00000000      13.30000000        0 
Au      13.30000000      19.00000000      17.10000000        0 
Au      13.30000000      19.00000000      20.90000000        0 
Au      13.30000000      19.00000000      24.70000000        0 
Au      13.30000000      19.00000000      28.50000000        0 
Cu      13.30000000      20.90000000       7.60000000        0 
Cu      13.30000000      20.90000000      11.40000000        0 
Cu      13.30000000      20.90000000      15.20000000        0 
Cu      13.30000000      20.90000000      19.00000000        0 
Cu      13.30000000      20.90000000      22.80000000        0 
Cu      13.30000000      20.90000000      26.60000000        0 
Au      13.30000000      22.80000000       9.50000000        0 
Au      13.30000000      22.80000000      13.30000000        0 
Au      13.30000000      22.80000000      17.10000000        0 
Au      13.30000000      22.80000000      20.90000000        0 
Au      13.30000000      22.80000000      24.70000000        0 
Cu      13.30000000      24.70000000      11.40000000        0 
Cu      13.30000000      24.70000000      15.20000000        0 
Cu      13.30000000      24.70000000      19.00000000        0 
Cu      13.30000000      24.70000000      22.80000000        0 
Au      13.30000000      26.60000000      13.30000000        0 
Au      13.30000000      26.60000000      17.10000000        0 
Au      13.30000000      26.60000000      20.90000000        0 
Cu      13.30000000      28.50000000      15.20000000        0 
Cu      13.30000000      28.50000000      19.00000000        0 
Au      13.30000000      30.40000000      17.10000000        0 
Cu      15.20000000       0.00000000      15.20000000        0 
Au      15.20000000       1.90000000      13.30000000        0 
Au      15.20000000       1.90000000      17.10000000        0 
Cu      15.20000000       3.80000000      11.40000000        0 
Cu      15.20000000       3.80000000      15.20000000        0 
Cu      15.20000000       3.80000000      19.00000000        0 
Au      15.20000000       5.70000000       9.50000000        0 
Au      15.20000000       5.70000000      13.30000000        0 
Au      15.20000000       5.70000000      17.10000000        0 
Au      15.20000000       5.70000000      20.90000000        0 
Cu      15.20000000       7.60000000       7.60000000        0 
Cu      15.20000000       7.60000000      11.40000000        0 
Cu      15.20000000       7.60000000      15.20000000        0 
Cu      15.20000000       7.60000000      19.00000000        0 
Cu      15.20000000       7.60000000      22.80000000        0 
Au      15.20000000       9.50000000       5.70000000        0 
Au      15.20000000       9.50000000       9.50000000        0 
Au      15.20000000       9.50000000      13.30000000        0 
Au      15.20000000       9.50000000      17.10000000        0 
Au      15.20000000       9.50000000      20.90000000        0 
Au      15.20000000       9.50000000      24.70000000        0 
Cu      15.20000000      11.40000000       3.80000000        0 
Cu      15.20000000      11.40000000       7.60000000        0 
Cu      15.20000000      11.40000000      11.40000000        0 
Cu      15.20000000      11.40000000      15.20000000        0 
Cu      15.20000000      11.40000000      19.00000000        0 
Cu      15.20000000      11.40000000      22.80000000        0 
Cu      15.20000000      11.40000000      26.60000000        0 
Au      15.20000000      13.30000000       1.90000000        0 
Au      15.20000000      13.30000000       5.70000000        0 
Au      15.20000000      13.30000000       9.50000000        0 
Au      15.20000000      13.30000000      13.30000000        0 
Au      15.20000000      13.30000000      17.10000000        0 
Au      15.20000000      13.30000000      20.90000000        0 
Au      15.20000000      13.30000000      24.70000000        0 
Au      15.20000000      13.30000000      28.50000000        0 
Cu      15.20000000      15.20000000       0.00000000        0 
Cu      15.20000000      15.20000000       3.80000000        0 
Cu      15.20000000      15.20000000       7.60000000        0 
Cu      15.20000000      15.20000000      11.40000000        0 
Cu      15.20000000      15.20000000      15.20000000        0 
Cu      15.20000000      15.20000000      19.00000000        0 
Cu      15.20000000      15.20000000      22.80000000        0 
Cu      15.20000000      15.20000000      26.60000000        0 
Cu      15.20000000      15.20000000      30.40000000        0 
Au      15.20000000      17.10000000       1.90000000        0 
Au      15.20000000      17.10000000       5.70000000        0 
Au      15.20000000      17.10000000       9.50000000        0 
Au      15.20000000      17.10000000      13.30000000        0 
Au      15.20000000      17.10000000      17.10000000        0 
Au      15.20000000      17.10000000      20.90000000        0 
Au      15.20000000      17.10000000      24.70000000        0 
Au      15.20000000      17.10000000      28.50000000        0 
Au      15.20000000      17.10000000      32.30000000        0 
Cu      15.20000000      19.00000000       3.80000000        0 
Cu      15.20000000      19.00000000       7.60000000        0 
Cu      15.20000000      19.00000000      11.40000000        0 
Cu      15.20000000      19.00000000      15.20000000        0 
Cu      15.20000000      19.00000000      19.00000000        0 
Cu      15.20000000      19.00000000      22.80000000        0 
Cu      15.20000000      19.00000000      26.60000000        0 
Cu      15.20000000      19.00000000      30.40000000        0 
Au      15.20000000      20.90000000       5.70000000        0 
Au      15.20000000      20.90000000       9.50000000        0 
Au      15.20000000      20.90000000      13.30000000        0 
Au      15.20000000      20.90000000      17.10000000        0 
Au      15.20000000      20.90000000      20.90000000        0 
Au      15.20000000      20.90000000      24.70000000        0 
Au      15.20000000      20.90000000      28.50000000        0 
Cu      15.20000000      22.80000000       7.60000000        0 
Cu      15.20000000      22.80000000      11.40000000        0 
Cu      15.20000000      22.80000000      15.20000000        0 
Cu      15.20000000      22.80000000      19.00000000        0 
Cu      15.20000000      22.80000000      22.80000000        0 
Cu      15.20000000      22.80000000      26.60000000        0 
Au      15.20000000      24.70000000       9.50000000        0 
Au      15.20000000      24.70000000      13.30000000        0 
Au      15.20000000      24.70000000      17.10000000        0 
Au      15.20000000      24.70000000      20.90000000        0 
Au      15.20000000      24.70000000      24.70000000        0 
Cu      15.20000000      26.60000000      11.40000000        0 
Cu      15.20000000      26.60000000      15.20000000        0 
Cu      15.20000000      26.60000000      19.00000000        0 
Cu      15.20000000      26.60000000      22.80000000        0 
Au      15.20000000      28.50000000      13.30000000        0 
Au      15.20000000      28.50000000      17.10000000        0 
Au      15.20000000      28.50000000      20.90000000        0 
Cu      15.20000000      30.40000000      15.20000000        0 
Cu      15.20000000      30.40000000      19.00000000        0 
Au      15.20000000      32.30000000      17.10000000        0 
Au      17.10000000       0.00000000      17.10000000        0 
Cu      17.10000000       1.90000000      15.20000000        0 
Cu      17.10000000       1.90000000      19.00000000        0 
Au      17.10000000       3.80000000      13.30000000        0 
Au      17.10000000       3.80000000      17.10000000        0 
Au      17.10000000       3.80000000      20.90000000        0 
Cu      17.10000000       5.70000000      11.40000000        0 
Cu      17.10000000       5.70000000      15.20000000        0 
Cu      17.10000000       5.70000000      19.00000000        0 
Cu      17.10000000       5.70000000      22.80000000        0 
Au      17.10000000       7.60000000       9.50000000        0 
Au      17.10000000       7.60000000      13.30000000        0 
Au      17.10000000       7.60000000      17.10000000        0 
Au      17.10000000       7.60000000      20.90000000        0 
Au      17.10000000       7.60000000      24.70000000        0 
Cu      17.10000000       9.50000000       7.60000000        0 